LAMMPS Montmo + spce/Na
  
     4059  atoms
     2358  bonds
     1269  angles
        0  dihedrals
        0  impropers
  
       10  atom types
        2  bond types
        2  angle types
        0  dihedral types
        0  improper types
  
        -12.950       12.95  xlo xhi
        -13.455       13.455  ylo yhi
        -30.00        30.00  zlo zhi
  
 
  Atoms

       1       1       4        1.3598        1.7269999981        8.9700002670       30.0000000000
       2       1       3        1.5750        1.7269999981       17.9400005341      -30.0000000000
       3       1       4        1.3598        1.7269999981       26.9099998474       30.0000000000
       4       1       4        1.3598        6.9070000648        8.9700002670      -30.0000000000
       5       1       4        1.3598        6.9070000648       17.9400005341       30.0000000000
       6       1       4        1.3598        6.9070000648       26.9099998474      -30.0000000000
       7       1       3        1.5750       12.0869998932        8.9700002670       30.0000000000
       8       1       4        1.3598       12.0869998932       17.9400005341      -30.0000000000
       9       1       3        1.5750       12.0869998932       26.9099998474       30.0000000000
      10       1       3        1.5750       17.2670001984        8.9700002670      -30.0000000000
      11       1       3        1.5750       17.2670001984       17.9400005341       30.0000000000
      12       1       3        1.5750       17.2670001984       26.9099998474      -30.0000000000
      13       1       3        1.5750       22.4470005035        8.9700002670       30.0000000000
      14       1       4        1.3598       22.4470005035       17.9400005341      -30.0000000000
      15       1       3        1.5750       22.4470005035       26.9099998474       30.0000000000
      16       1       3        1.5750        1.7269999981        2.9900000095      -30.0000000000
      17       1       3        1.5750        1.7269999981       11.9600000381       30.0000000000
      18       1       3        1.5750        1.7269999981       20.9300003052      -30.0000000000
      19       1       3        1.5750        6.9070000648        2.9900000095       30.0000000000
      20       1       3        1.5750        6.9070000648       11.9600000381      -30.0000000000
      21       1       3        1.5750        6.9070000648       20.9300003052       30.0000000000
      22       1       3        1.5750       12.0869998932        2.9900000095      -30.0000000000
      23       1       3        1.5750       12.0869998932       11.9600000381       30.0000000000
      24       1       3        1.5750       12.0869998932       20.9300003052      -30.0000000000
      25       1       3        1.5750       17.2670001984        2.9900000095       30.0000000000
      26       1       3        1.5750       17.2670001984       11.9600000381      -30.0000000000
      27       1       3        1.5750       17.2670001984       20.9300003052       30.0000000000
      28       1       4        1.3598       22.4470005035        2.9900000095      -30.0000000000
      29       1       3        1.5750       22.4470005035       11.9600000381       30.0000000000
      30       1       3        1.5750       22.4470005035       20.9300003052      -30.0000000000
      31       1       3        1.5750        4.3169999123        4.4850001335       30.0000000000
      32       1       4        1.3598        4.3169999123       13.4549999237      -30.0000000000
      33       1       3        1.5750        4.3169999123       22.4249992371       30.0000000000
      34       1       3        1.5750        9.4969997406        4.4850001335      -30.0000000000
      35       1       3        1.5750        9.4969997406       13.4549999237       30.0000000000
      36       1       4        1.3598        9.4969997406       22.4249992371      -30.0000000000
      37       1       3        1.5750       14.6770000458        4.4850001335       30.0000000000
      38       1       3        1.5750       14.6770000458       13.4549999237      -30.0000000000
      39       1       3        1.5750       14.6770000458       22.4249992371       30.0000000000
      40       1       3        1.5750       19.8570003510        4.4850001335      -30.0000000000
      41       1       4        1.3598       19.8570003510       13.4549999237       30.0000000000
      42       1       3        1.5750       19.8570003510       22.4249992371      -30.0000000000
      43       1       3        1.5750       25.0370006561        4.4850001335       30.0000000000
      44       1       3        1.5750       25.0370006561       13.4549999237      -30.0000000000
      45       1       3        1.5750       25.0370006561       22.4249992371       30.0000000000
      46       1       3        1.5750        4.3169999123        7.4749999046      -30.0000000000
      47       1       3        1.5750        4.3169999123       16.4449996948       30.0000000000
      48       1       3        1.5750        4.3169999123       25.4150009155      -30.0000000000
      49       1       3        1.5750        9.4969997406        7.4749999046       30.0000000000
      50       1       3        1.5750        9.4969997406       16.4449996948      -30.0000000000
      51       1       3        1.5750        9.4969997406       25.4150009155       30.0000000000
      52       1       3        1.5750       14.6770000458        7.4749999046      -30.0000000000
      53       1       3        1.5750       14.6770000458       16.4449996948       30.0000000000
      54       1       3        1.5750       14.6770000458       25.4150009155      -30.0000000000
      55       1       3        1.5750       19.8570003510        7.4749999046       30.0000000000
      56       1       3        1.5750       19.8570003510       16.4449996948      -30.0000000000
      57       1       4        1.3598       19.8570003510       25.4150009155       30.0000000000
      58       1       3        1.5750       25.0370006561        7.4749999046      -30.0000000000
      59       1       3        1.5750       25.0370006561       16.4449996948       30.0000000000
      60       1       3        1.5750       25.0370006561       25.4150009155      -30.0000000000
      61       1       5        2.1000        0.0000000000        2.9900000095      -27.3199996948
      62       1       5        2.1000        0.0000000000       11.9600000381      -27.3199996948
      63       1       5        2.1000        0.0000000000       20.9300003052      -27.3199996948
      64       1       5        2.1000        5.1799998283        2.9900000095      -27.3199996948
      65       1       5        2.1000        5.1799998283       11.9600000381      -27.3199996948
      66       1       5        2.1000        5.1799998283       20.9300003052      -27.3199996948
      67       1       5        2.1000       10.3599996567        2.9900000095      -27.3199996948
      68       1       5        2.1000       10.3599996567       11.9600000381      -27.3199996948
      69       1       5        2.1000       10.3599996567       20.9300003052      -27.3199996948
      70       1       5        2.1000       15.5399999619        2.9900000095      -27.3199996948
      71       1       5        2.1000       15.5399999619       11.9600000381      -27.3199996948
      72       1       5        2.1000       15.5399999619       20.9300003052      -27.3199996948
      73       1       5        2.1000       20.7199993134        2.9900000095      -27.3199996948
      74       1       5        2.1000       20.7199993134       11.9600000381      -27.3199996948
      75       1       5        2.1000       20.7199993134       20.9300003052      -27.3199996948
      76       1       5        2.1000        0.0000000000        5.9800000191      -27.3199996948
      77       1       5        2.1000        0.0000000000       14.9499998093      -27.3199996948
      78       1       5        2.1000        0.0000000000       23.9200000763      -27.3199996948
      79       1       5        2.1000        5.1799998283        5.9800000191      -27.3199996948
      80       1       5        2.1000        5.1799998283       14.9499998093      -27.3199996948
      81       1       5        2.1000        5.1799998283       23.9200000763      -27.3199996948
      82       1       5        2.1000       10.3599996567        5.9800000191      -27.3199996948
      83       1       5        2.1000       10.3599996567       14.9499998093      -27.3199996948
      84       1       5        2.1000       10.3599996567       23.9200000763      -27.3199996948
      85       1       5        2.1000       15.5399999619        5.9800000191      -27.3199996948
      86       1       5        2.1000       15.5399999619       14.9499998093      -27.3199996948
      87       1       5        2.1000       15.5399999619       23.9200000763      -27.3199996948
      88       1       5        2.1000       20.7199993134        5.9800000191      -27.3199996948
      89       1       5        2.1000       20.7199993134       14.9499998093      -27.3199996948
      90       1       5        2.1000       20.7199993134       23.9200000763      -27.3199996948
      91       1       5        2.1000        2.5899999142        1.4950000048      -27.3199996948
      92       1       5        2.1000        2.5899999142       10.4650001526      -27.3199996948
      93       1       5        2.1000        2.5899999142       19.4349994659      -27.3199996948
      94       1       5        2.1000        7.7699999809        1.4950000048      -27.3199996948
      95       1       5        2.1000        7.7699999809       10.4650001526      -27.3199996948
      96       1       5        2.1000        7.7699999809       19.4349994659      -27.3199996948
      97       1       5        2.1000       12.9499998093        1.4950000048      -27.3199996948
      98       1       5        2.1000       12.9499998093       10.4650001526      -27.3199996948
      99       1       5        2.1000       12.9499998093       19.4349994659      -27.3199996948
     100       1       5        2.1000       18.1299991608        1.4950000048      -27.3199996948
     101       1       5        2.1000       18.1299991608       10.4650001526      -27.3199996948
     102       1       5        2.1000       18.1299991608       19.4349994659      -27.3199996948
     103       1       5        2.1000       23.3099994659        1.4950000048      -27.3199996948
     104       1       5        2.1000       23.3099994659       10.4650001526      -27.3199996948
     105       1       5        2.1000       23.3099994659       19.4349994659      -27.3199996948
     106       1       5        2.1000        2.5899999142        7.4749999046      -27.3199996948
     107       1       5        2.1000        2.5899999142       16.4449996948      -27.3199996948
     108       1       5        2.1000        2.5899999142       25.4150009155      -27.3199996948
     109       1       5        2.1000        7.7699999809        7.4749999046      -27.3199996948
     110       1       5        2.1000        7.7699999809       16.4449996948      -27.3199996948
     111       1       5        2.1000        7.7699999809       25.4150009155      -27.3199996948
     112       1       5        2.1000       12.9499998093        7.4749999046      -27.3199996948
     113       1       5        2.1000       12.9499998093       16.4449996948      -27.3199996948
     114       1       5        2.1000       12.9499998093       25.4150009155      -27.3199996948
     115       1       5        2.1000       18.1299991608        7.4749999046      -27.3199996948
     116       1       5        2.1000       18.1299991608       16.4449996948      -27.3199996948
     117       1       5        2.1000       18.1299991608       25.4150009155      -27.3199996948
     118       1       5        2.1000       23.3099994659        7.4749999046      -27.3199996948
     119       1       5        2.1000       23.3099994659       16.4449996948      -27.3199996948
     120       1       5        2.1000       23.3099994659       25.4150009155      -27.3199996948
     121       1       5        2.1000        0.8629999757        1.4950000048       27.3199996948
     122       1       5        2.1000        0.8629999757       10.4650001526       27.3199996948
     123       1       5        2.1000        0.8629999757       19.4349994659       27.3199996948
     124       1       5        2.1000        6.0430002213        1.4950000048       27.3199996948
     125       1       5        2.1000        6.0430002213       10.4650001526       27.3199996948
     126       1       5        2.1000        6.0430002213       19.4349994659       27.3199996948
     127       1       5        2.1000       11.2229995728        1.4950000048       27.3199996948
     128       1       5        2.1000       11.2229995728       10.4650001526       27.3199996948
     129       1       5        2.1000       11.2229995728       19.4349994659       27.3199996948
     130       1       5        2.1000       16.4029998779        1.4950000048       27.3199996948
     131       1       5        2.1000       16.4029998779       10.4650001526       27.3199996948
     132       1       5        2.1000       16.4029998779       19.4349994659       27.3199996948
     133       1       5        2.1000       21.5830001831        1.4950000048       27.3199996948
     134       1       5        2.1000       21.5830001831       10.4650001526       27.3199996948
     135       1       5        2.1000       21.5830001831       19.4349994659       27.3199996948
     136       1       5        2.1000        0.8629999757        4.4850001335       27.3199996948
     137       1       5        2.1000        0.8629999757       13.4549999237       27.3199996948
     138       1       5        2.1000        0.8629999757       22.4249992371       27.3199996948
     139       1       5        2.1000        6.0430002213        4.4850001335       27.3199996948
     140       1       5        2.1000        6.0430002213       13.4549999237       27.3199996948
     141       1       5        2.1000        6.0430002213       22.4249992371       27.3199996948
     142       1       5        2.1000       11.2229995728        4.4850001335       27.3199996948
     143       1       5        2.1000       11.2229995728       13.4549999237       27.3199996948
     144       1       5        2.1000       11.2229995728       22.4249992371       27.3199996948
     145       1       5        2.1000       16.4029998779        4.4850001335       27.3199996948
     146       1       5        2.1000       16.4029998779       13.4549999237       27.3199996948
     147       1       5        2.1000       16.4029998779       22.4249992371       27.3199996948
     148       1       5        2.1000       21.5830001831        4.4850001335       27.3199996948
     149       1       5        2.1000       21.5830001831       13.4549999237       27.3199996948
     150       1       5        2.1000       21.5830001831       22.4249992371       27.3199996948
     151       1       5        2.1000        3.4530000687        0.0000000000       27.3199996948
     152       1       5        2.1000        3.4530000687        8.9700002670       27.3199996948
     153       1       5        2.1000        3.4530000687       17.9400005341       27.3199996948
     154       1       5        2.1000        8.6330003738        0.0000000000       27.3199996948
     155       1       5        2.1000        8.6330003738        8.9700002670       27.3199996948
     156       1       5        2.1000        8.6330003738       17.9400005341       27.3199996948
     157       1       5        2.1000       13.8129997253        0.0000000000       27.3199996948
     158       1       5        2.1000       13.8129997253        8.9700002670       27.3199996948
     159       1       5        2.1000       13.8129997253       17.9400005341       27.3199996948
     160       1       5        2.1000       18.9930000305        0.0000000000       27.3199996948
     161       1       5        2.1000       18.9930000305        8.9700002670       27.3199996948
     162       1       5        2.1000       18.9930000305       17.9400005341       27.3199996948
     163       1       5        2.1000       24.1730003357        0.0000000000       27.3199996948
     164       1       5        2.1000       24.1730003357        8.9700002670       27.3199996948
     165       1       5        2.1000       24.1730003357       17.9400005341       27.3199996948
     166       1       5        2.1000        3.4530000687        5.9800000191       27.3199996948
     167       1       5        2.1000        3.4530000687       14.9499998093       27.3199996948
     168       1       5        2.1000        3.4530000687       23.9200000763       27.3199996948
     169       1       5        2.1000        8.6330003738        5.9800000191       27.3199996948
     170       1       5        2.1000        8.6330003738       14.9499998093       27.3199996948
     171       1       5        2.1000        8.6330003738       23.9200000763       27.3199996948
     172       1       5        2.1000       13.8129997253        5.9800000191       27.3199996948
     173       1       5        2.1000       13.8129997253       14.9499998093       27.3199996948
     174       1       5        2.1000       13.8129997253       23.9200000763       27.3199996948
     175       1       5        2.1000       18.9930000305        5.9800000191       27.3199996948
     176       1       5        2.1000       18.9930000305       14.9499998093       27.3199996948
     177       1       5        2.1000       18.9930000305       23.9200000763       27.3199996948
     178       1       5        2.1000       24.1730003357        5.9800000191       27.3199996948
     179       1       5        2.1000       24.1730003357       14.9499998093       27.3199996948
     180       1       5        2.1000       24.1730003357       23.9200000763       27.3199996948
     181       1       6       -1.0500        1.2949999571        2.2425000668      -26.7299995422
     182       1       6       -1.0500        1.2949999571       11.2124996185      -26.7299995422
     183       1       6       -1.0500        1.2949999571       20.1825008392      -26.7299995422
     184       1       6       -1.0500        6.4749999046        2.2425000668      -26.7299995422
     185       1       6       -1.0500        6.4749999046       11.2124996185      -26.7299995422
     186       1       6       -1.0500        6.4749999046       20.1825008392      -26.7299995422
     187       1       6       -1.0500       11.6549997330        2.2425000668      -26.7299995422
     188       1       6       -1.0500       11.6549997330       11.2124996185      -26.7299995422
     189       1       6       -1.0500       11.6549997330       20.1825008392      -26.7299995422
     190       1       6       -1.0500       16.8349990845        2.2425000668      -26.7299995422
     191       1       6       -1.0500       16.8349990845       11.2124996185      -26.7299995422
     192       1       6       -1.0500       16.8349990845       20.1825008392      -26.7299995422
     193       1       6       -1.0500       22.0149993896        2.2425000668      -26.7299995422
     194       1       6       -1.0500       22.0149993896       11.2124996185      -26.7299995422
     195       1       6       -1.0500       22.0149993896       20.1825008392      -26.7299995422
     196       1       6       -1.0500        3.8849999905        2.2425000668      -26.7299995422
     197       1       6       -1.0500        3.8849999905       11.2124996185      -26.7299995422
     198       1       6       -1.0500        3.8849999905       20.1825008392      -26.7299995422
     199       1       6       -1.0500        9.0649995804        2.2425000668      -26.7299995422
     200       1       6       -1.0500        9.0649995804       11.2124996185      -26.7299995422
     201       1       6       -1.0500        9.0649995804       20.1825008392      -26.7299995422
     202       1       6       -1.0500       14.2449998856        2.2425000668      -26.7299995422
     203       1       6       -1.0500       14.2449998856       11.2124996185      -26.7299995422
     204       1       6       -1.0500       14.2449998856       20.1825008392      -26.7299995422
     205       1       6       -1.0500       19.4249992371        2.2425000668      -26.7299995422
     206       1       6       -1.0500       19.4249992371       11.2124996185      -26.7299995422
     207       1       6       -1.0500       19.4249992371       20.1825008392      -26.7299995422
     208       1       6       -1.0500       24.6049995422        2.2425000668      -26.7299995422
     209       1       6       -1.0500       24.6049995422       11.2124996185      -26.7299995422
     210       1       6       -1.0500       24.6049995422       20.1825008392      -26.7299995422
     211       1       6       -1.0500        3.8849999905        6.7274999619      -26.7299995422
     212       1       6       -1.0500        3.8849999905       15.6975002289      -26.7299995422
     213       1       6       -1.0500        3.8849999905       24.6674995422      -26.7299995422
     214       1       6       -1.0500        9.0649995804        6.7274999619      -26.7299995422
     215       1       6       -1.0500        9.0649995804       15.6975002289      -26.7299995422
     216       1       6       -1.0500        9.0649995804       24.6674995422      -26.7299995422
     217       1       6       -1.0500       14.2449998856        6.7274999619      -26.7299995422
     218       1       6       -1.0500       14.2449998856       15.6975002289      -26.7299995422
     219       1       6       -1.0500       14.2449998856       24.6674995422      -26.7299995422
     220       1       6       -1.0500       19.4249992371        6.7274999619      -26.7299995422
     221       1       6       -1.0500       19.4249992371       15.6975002289      -26.7299995422
     222       1       6       -1.0500       19.4249992371       24.6674995422      -26.7299995422
     223       1       6       -1.0500       24.6049995422        6.7274999619      -26.7299995422
     224       1       6       -1.0500       24.6049995422       15.6975002289      -26.7299995422
     225       1       6       -1.0500       24.6049995422       24.6674995422      -26.7299995422
     226       1       6       -1.0500        1.2949999571        6.7274999619      -26.7299995422
     227       1       6       -1.0500        1.2949999571       15.6975002289      -26.7299995422
     228       1       6       -1.0500        1.2949999571       24.6674995422      -26.7299995422
     229       1       6       -1.0500        6.4749999046        6.7274999619      -26.7299995422
     230       1       6       -1.0500        6.4749999046       15.6975002289      -26.7299995422
     231       1       6       -1.0500        6.4749999046       24.6674995422      -26.7299995422
     232       1       6       -1.0500       11.6549997330        6.7274999619      -26.7299995422
     233       1       6       -1.0500       11.6549997330       15.6975002289      -26.7299995422
     234       1       6       -1.0500       11.6549997330       24.6674995422      -26.7299995422
     235       1       6       -1.0500       16.8349990845        6.7274999619      -26.7299995422
     236       1       6       -1.0500       16.8349990845       15.6975002289      -26.7299995422
     237       1       6       -1.0500       16.8349990845       24.6674995422      -26.7299995422
     238       1       6       -1.0500       22.0149993896        6.7274999619      -26.7299995422
     239       1       6       -1.0500       22.0149993896       15.6975002289      -26.7299995422
     240       1       6       -1.0500       22.0149993896       24.6674995422      -26.7299995422
     241       1       6       -1.0500        0.0000000000        4.4850001335      -26.7299995422
     242       1       6       -1.0500        0.0000000000       13.4549999237      -26.7299995422
     243       1       6       -1.0500        0.0000000000       22.4249992371      -26.7299995422
     244       1       6       -1.0500        5.1799998283        4.4850001335      -26.7299995422
     245       1       6       -1.0500        5.1799998283       13.4549999237      -26.7299995422
     246       1       6       -1.0500        5.1799998283       22.4249992371      -26.7299995422
     247       1       6       -1.0500       10.3599996567        4.4850001335      -26.7299995422
     248       1       6       -1.0500       10.3599996567       13.4549999237      -26.7299995422
     249       1       6       -1.0500       10.3599996567       22.4249992371      -26.7299995422
     250       1       6       -1.0500       15.5399999619        4.4850001335      -26.7299995422
     251       1       6       -1.0500       15.5399999619       13.4549999237      -26.7299995422
     252       1       6       -1.0500       15.5399999619       22.4249992371      -26.7299995422
     253       1       6       -1.0500       20.7199993134        4.4850001335      -26.7299995422
     254       1       6       -1.0500       20.7199993134       13.4549999237      -26.7299995422
     255       1       6       -1.0500       20.7199993134       22.4249992371      -26.7299995422
     256       1       6       -1.0500        2.5899999142        8.9700002670      -26.7299995422
     257       1       6       -1.0500        2.5899999142       17.9400005341      -26.7299995422
     258       1       6       -1.0500        2.5899999142       26.9099998474      -26.7299995422
     259       1       6       -1.0500        7.7699999809        8.9700002670      -26.7299995422
     260       1       6       -1.0500        7.7699999809       17.9400005341      -26.7299995422
     261       1       6       -1.0500        7.7699999809       26.9099998474      -26.7299995422
     262       1       6       -1.0500       12.9499998093        8.9700002670      -26.7299995422
     263       1       6       -1.0500       12.9499998093       17.9400005341      -26.7299995422
     264       1       6       -1.0500       12.9499998093       26.9099998474      -26.7299995422
     265       1       6       -1.0500       18.1299991608        8.9700002670      -26.7299995422
     266       1       6       -1.0500       18.1299991608       17.9400005341      -26.7299995422
     267       1       6       -1.0500       18.1299991608       26.9099998474      -26.7299995422
     268       1       6       -1.0500       23.3099994659        8.9700002670      -26.7299995422
     269       1       6       -1.0500       23.3099994659       17.9400005341      -26.7299995422
     270       1       6       -1.0500       23.3099994659       26.9099998474      -26.7299995422
     271       1       6       -1.0500        2.1579999924        0.7475000024       26.7299995422
     272       1       6       -1.0500        2.1579999924        9.7174997330       26.7299995422
     273       1       6       -1.0500        2.1579999924       18.6875000000       26.7299995422
     274       1       6       -1.0500        7.3379998207        0.7475000024       26.7299995422
     275       1       6       -1.0500        7.3379998207        9.7174997330       26.7299995422
     276       1       6       -1.0500        7.3379998207       18.6875000000       26.7299995422
     277       1       6       -1.0500       12.5179996490        0.7475000024       26.7299995422
     278       1       6       -1.0500       12.5179996490        9.7174997330       26.7299995422
     279       1       6       -1.0500       12.5179996490       18.6875000000       26.7299995422
     280       1       6       -1.0500       17.6979999542        0.7475000024       26.7299995422
     281       1       6       -1.0500       17.6979999542        9.7174997330       26.7299995422
     282       1       6       -1.0500       17.6979999542       18.6875000000       26.7299995422
     283       1       6       -1.0500       22.8780002594        0.7475000024       26.7299995422
     284       1       6       -1.0500       22.8780002594        9.7174997330       26.7299995422
     285       1       6       -1.0500       22.8780002594       18.6875000000       26.7299995422
     286       1       6       -1.0500        2.1579999924        5.2325000763       26.7299995422
     287       1       6       -1.0500        2.1579999924       14.2025003433       26.7299995422
     288       1       6       -1.0500        2.1579999924       23.1725006104       26.7299995422
     289       1       6       -1.0500        7.3379998207        5.2325000763       26.7299995422
     290       1       6       -1.0500        7.3379998207       14.2025003433       26.7299995422
     291       1       6       -1.0500        7.3379998207       23.1725006104       26.7299995422
     292       1       6       -1.0500       12.5179996490        5.2325000763       26.7299995422
     293       1       6       -1.0500       12.5179996490       14.2025003433       26.7299995422
     294       1       6       -1.0500       12.5179996490       23.1725006104       26.7299995422
     295       1       6       -1.0500       17.6979999542        5.2325000763       26.7299995422
     296       1       6       -1.0500       17.6979999542       14.2025003433       26.7299995422
     297       1       6       -1.0500       17.6979999542       23.1725006104       26.7299995422
     298       1       6       -1.0500       22.8780002594        5.2325000763       26.7299995422
     299       1       6       -1.0500       22.8780002594       14.2025003433       26.7299995422